LAMMPS Description
 
         640  atoms
         576  bonds
         512  angles
         448  dihedrals
           0  impropers
 
           3  atom types
           1  bond types
           1  angle types
           1  dihedral types
 
  0.000000 29.101000 xlo xhi
  0.000000 29.101000 ylo yhi
  0.000000 29.101000 zlo zhi
 
Masses
 
  1 15.0347
  2 14.0268
  3 15.0347
 
Nonbond Coeffs
 
  1    0.227000    3.930000
  2    0.093000    3.930000
  3    0.227000    3.930000
 
Bond Coeffs
 
  1  449.650000    1.540000
 
Angle Coeffs
 
  1   62.052000  114.000000
 
Dihedral Coeffs
 
  1    2.006810   -4.011610    0.270987    6.289410    0.000000
 
Atoms
 
      1      0   1   0.000   0.13596   2.22468  13.10120   0   0   0
      2      0   2   0.000  28.96180   0.94053  13.90473  -1   0   0
      3      0   2   0.000   1.10661   0.07101  14.17639   0   0   0
      4      0   2   0.000   1.48031  28.05683  13.17450   0  -1   0
      5      0   2   0.000   1.65466  28.48091  11.70612   0  -1   0
      6      0   2   0.000   0.31978  28.43510  10.95261   0  -1   0
      7      0   2   0.000   0.17989   0.17361   9.68069   0   0   0
      8      0   2   0.000  27.79750   0.27570   9.30735  -1   0   0
      9      0   2   0.000  27.58903   0.84211   7.90915  -1   0   0
     10      0   3   0.000  28.54948   0.16078   6.94422  -1   0   0
     11      0   1   0.000  28.88167   4.75336  27.69227  -1   0   1
     12      0   2   0.000  28.51770   5.07244   0.03287  -1   0   2
     13      0   2   0.000   0.56865   5.83300   0.67558   0   0   2
     14      0   2   0.000   0.37907   5.94241   2.18934   0   0   2
     15      0   2   0.000   1.60466   5.49703   2.98441   0   0   2
     16      0   2   0.000   1.88990   3.98252   2.96948   0   0   2
     17      0   2   0.000   2.25696   3.29233   1.64585   0   0   2
     18      0   2   0.000   1.28185   2.14519   1.40633   0   0   2
     19      0   2   0.000   0.96677   1.76002  29.07049   0   0   1
     20      0   3   0.000  28.79898   0.89530  29.01735  -1   0   1
     21      0   1   0.000  11.48009   8.95099  26.68650   0   0   1
     22      0   2   0.000  12.29273   7.80353  26.06767   0   0   1
     23      0   2   0.000  13.76363   8.16653  25.79564   0   0   1
     24      0   2   0.000  14.02290   9.64974  25.49042   0   0   1
     25      0   2   0.000  14.07295  10.01496  23.99871   0   0   1
     26      0   2   0.000  12.79498   9.69601  23.20215   0   0   1
     27      0   2   0.000  12.76369   8.28162  22.59691   0   0   1
     28      0   2   0.000  13.93634   8.07004  21.63083   0   0   1
     29      0   2   0.000  13.97823   6.69248  20.95447   0   0   1
     30      0   3   0.000  15.09483   6.59218  19.90111   0   0   1
     31      0   1   0.000   3.71010  23.75611  15.94110   0   0   1
     32      0   2   0.000   2.97254  24.05498  14.62571   0   0   1
     33      0   2   0.000   3.76271  23.69279  13.35760   0   0   1
     34      0   2   0.000   2.99120  24.05241  12.07945   0   0   1
     35      0   2   0.000   3.69955  23.65599  10.77805   0   0   1
     36      0   2   0.000   2.83618  23.96042   9.54529   0   0   1
     37      0   2   0.000   3.46441  23.53507   8.21095   0   0   1
     38      0   2   0.000   3.11993  22.12678   7.69276   0   0   1
     39      0   2   0.000   3.63215  20.90955   8.47846   0   0   1
     40      0   3   0.000   2.59141  20.27612   9.41853   0   0   1
     41      0   1   0.000  15.18406  28.11513  20.79550   0   0   1
     42      0   2   0.000  14.21527  26.92646  20.91098   0   0   1
     43      0   2   0.000  13.85712  26.62375  22.37003   0   0   1
     44      0   2   0.000  12.72459  25.60935  22.57815   0   0   1
     45      0   2   0.000  12.32845  25.49425  24.05589   0   0   1
     46      0   2   0.000  11.93127  26.84623  24.67325   0   0   1
     47      0   2   0.000  13.02520  27.60192  25.45403   0   0   1
     48      0   2   0.000  13.57247  26.84734  26.67371   0   0   1
     49      0   2   0.000  12.52239  26.57014  27.76150   0   0   1
     50      0   3   0.000  11.66619  25.30408  27.57840   0   0   1
     51      0   1   0.000  21.74980   9.12928  22.49606   0   0   1
     52      0   2   0.000  21.94998   9.00810  24.01090   0   0   1
     53      0   2   0.000  21.81604   7.57271  24.51751   0   0   1
     54      0   2   0.000  21.61369   7.59489  26.02011   0   0   1
     55      0   2   0.000  21.48535   6.21484  26.63242   0   0   1
     56      0   2   0.000  20.41975   6.33005  27.70130   0   0   1
     57      0   2   0.000  20.67157   5.23486  28.69839   0   0   1
     58      0   2   0.000  21.99736   5.57183   0.21590   0   0   2
     59      0   2   0.000  21.98387   4.64236   1.39269   0   0   2
     60      0   3   0.000  20.57936   4.09167   1.64722   0   0   2
     61      0   1   0.000  19.22523   7.74122  10.24307   0   0   1
     62      0   2   0.000  18.40234   7.16649   9.07742   0   0   1
     63      0   2   0.000  19.24237   6.52021   7.96383   0   0   1
     64      0   2   0.000  18.41229   5.70932   6.95388   0   0   1
     65      0   2   0.000  19.25994   5.07887   5.83529   0   0   1
     66      0   2   0.000  18.88702   3.65588   5.39770   0   0   1
     67      0   2   0.000  19.58214   2.53223   6.19067   0   0   1
     68      0   2   0.000  19.34706   2.51559   7.71414   0   0   1
     69      0   2   0.000  20.44850   3.17374   8.56603   0   0   1
     70      0   3   0.000  19.96847   3.63132   9.95403   0   0   1
     71      0   1   0.000  28.90660  21.39188   6.70527   0   0   1
     72      0   2   0.000  28.26186  21.24916   8.09513   0   0   1
     73      0   2   0.000  27.07665  20.26914   8.14677   0   0   1
     74      0   2   0.000  25.68069  20.91234   8.01964   0   0   1
     75      0   2   0.000  25.39917  21.66581   6.70465   0   0   1
     76      0   2   0.000  25.48926  20.76297   5.46761   0   0   1
     77      0   2   0.000  25.31561  21.41968   4.09207   0   0   1
     78      0   2   0.000  26.46645  22.33395   3.64322   0   0   1
     79      0   2   0.000  27.33644  21.74574   2.52409   0   0   1
     80      0   3   0.000  28.23625  20.60470   3.01175   0   0   1
     81      0   1   0.000   0.31091  27.07789  25.05978   1   0   1
     82      0   2   0.000  28.63834  26.15566  24.10940   0   0   1
     83      0   2   0.000   0.31310  25.78674  22.83327   1   0   1
     84      0   2   0.000  28.72481  24.74495  21.93229   0   0   1
     85      0   2   0.000  28.72532  23.32346  22.52164   0   0   1
     86      0   2   0.000  27.61028  22.97968  23.52646   0   0   1
     87      0   2   0.000  28.03004  21.93469  24.57468   0   0   1
     88      0   2   0.000  28.73713  22.53694  25.80083   0   0   1
     89      0   2   0.000  27.72490  23.29947  26.66763   0   0   1
     90      0   3   0.000  28.29462  23.94775  27.92991   0   0   1
     91      0   1   0.000  13.14778   2.69724   3.53234   0   0   2
     92      0   2   0.000  14.65524   2.48593   3.37160   0   0   2
     93      0   2   0.000  15.18863   1.49564   4.41397   0   0   2
     94      0   2   0.000  16.07529   0.38263   3.83407   0   0   2
     95      0   2   0.000  15.31586  28.53564   2.89471   0  -1   2
     96      0   2   0.000  15.74626  28.65325   1.42873   0  -1   2
     97      0   2   0.000  14.55273  28.39479   0.50640   0  -1   2
     98      0   2   0.000  13.36012   0.20719   0.81762   0   0   2
     99      0   2   0.000  13.22110   1.37093  28.94316   0   0   1
    100      0   3   0.000  14.55740   1.94983  28.48260   0   0   1
    101      0   1   0.000   7.96562   5.94871  20.82507   0   0   1
    102      0   2   0.000   8.23184   5.07972  22.06922   0   0   1
    103      0   2   0.000   8.64523   3.62018  21.79897   0   0   1
    104      0   2   0.000  10.11722   3.39292  21.40309   0   0   1
    105      0   2   0.000  10.51834   3.72027  19.95327   0   0   1
    106      0   2   0.000   9.69290   3.00211  18.86983   0   0   1
    107      0   2   0.000  10.19047   3.33541  17.45318   0   0   1
    108      0   2   0.000   9.39394   2.70993  16.29520   0   0   1
    109      0   2   0.000   9.97459   3.09590  14.92165   0   0   1
    110      0   3   0.000   9.15984   2.62330  13.70475   0   0   1
    111      0   1   0.000   9.25417  27.65968  15.66394   0   0   1
    112      0   2   0.000   9.06542  28.12933  14.21120   0   0   1
    113      0   2   0.000  10.27373  27.87665  13.29202   0   0   1
    114      0   2   0.000   9.97437  28.11749  11.80009   0   0   1
    115      0   2   0.000  10.84251  27.32623  10.79815   0   0   1
    116      0   2   0.000  10.48225  25.84395  10.53339   0   0   1
    117      0   2   0.000  10.82150  24.80867  11.62769   0   0   1
    118      0   2   0.000   9.75793  24.58687  12.72185   0   0   1
    119      0   2   0.000  10.29396  23.85124  13.96364   0   0   1
    120      0   3   0.000   9.29115  23.75661  15.12812   0   0   1
    121      0   1   0.000   1.35958  17.72332   5.23337   0   0   1
    122      0   2   0.000   0.64121  17.04436   4.05300   0   0   1
    123      0   2   0.000   1.09544  15.61695   3.70780   0   0   1
    124      0   2   0.000   0.46328  14.46398   4.49851   0   0   1
    125      0   2   0.000   0.87370  14.38018   5.97849   0   0   1
    126      0   2   0.000   0.05130  15.23270   6.96149   0   0   1
    127      0   2   0.000   0.80982  15.59082   8.24410   0   0   1
    128      0   2   0.000   0.09647  16.62705   9.12832   0   0   1
    129      0   2   0.000  27.87933  16.13747   9.74667  -1   0   1
    130      0   3   0.000  27.36501  17.00943  10.90407  -1   0   1
    131      0   1   0.000  21.86650  12.26053   6.06916   0   0   2
    132      0   2   0.000  20.91031  11.96899   4.92299   0   0   2
    133      0   2   0.000  21.58856  11.35558   3.71306   0   0   2
    134      0   2   0.000  20.57879  10.83291   2.70805   0   0   2
    135      0   2   0.000  21.24489   9.86195   1.75838   0   0   2
    136      0   2   0.000  21.80915   8.57256   2.34123   0   0   2
    137      0   2   0.000  20.81702   7.54260   2.87822   0   0   2
    138      0   2   0.000  20.37171   7.73255   4.33145   0   0   2
    139      0   2   0.000  19.22718   8.72474   4.52643   0   0   2
    140      0   3   0.000  18.89870   9.26598   5.92192   0   0   2
    141      0   1   0.000  18.69661   3.10509  21.05559   0   0   1
    142      0   2   0.000  18.74138   2.44261  22.44393   0   0   1
    143      0   2   0.000  20.13980   2.34394  23.08482   0   0   1
    144      0   2   0.000  20.29800   1.12892  24.01905   0   0   1
    145      0   2   0.000  20.90714  28.95360  23.39349   0  -1   1
    146      0   2   0.000  20.32004  28.47436  22.04844   0  -1   1
    147      0   2   0.000  21.07350  29.01839  20.81751   0  -1   1
    148      0   2   0.000  20.30271  28.94298  19.48771   0  -1   1
    149      0   2   0.000  21.02621   0.55855  18.33293   0   0   1
    150      0   3   0.000  20.19720   0.66601  17.04091   0   0   1
    151      0   1   0.000  18.55057  14.79426  22.33663   0   0   1
    152      0   2   0.000  18.74616  15.38082  23.74236   0   0   1
    153      0   2   0.000  20.15780  15.12609  24.26588   0   0   1
    154      0   2   0.000  20.38662  15.58896  25.70477   0   0   1
    155      0   2   0.000  21.77649  15.25500  26.23359   0   0   1
    156      0   2   0.000  21.98067  13.90917  26.91541   0   0   1
    157      0   2   0.000  21.60145  12.66917  26.10369   0   0   1
    158      0   2   0.000  20.11107  12.35888  26.21236   0   0   1
    159      0   2   0.000  19.52646  11.71650  24.96420   0   0   1
    160      0   3   0.000  18.03395  12.04108  24.82233   0   0   1
    161      0   1   0.000  22.72863   1.69725  11.19521   0   1   1
    162      0   2   0.000  21.95692   0.87648  12.24054   0   1   1
    163      0   2   0.000  22.86838   0.45177  13.40506   0   1   1
    164      0   2   0.000  22.41279  28.31599  14.19738   0   0   1
    165      0   2   0.000  22.99581  26.96734  13.72604   0   0   1
    166      0   2   0.000  22.47117  26.39507  12.39315   0   0   1
    167      0   2   0.000  23.07733  26.96806  11.09832   0   0   1
    168      0   2   0.000  22.26892  26.57669   9.85347   0   0   1
    169      0   2   0.000  22.70582  27.25643   8.54874   0   0   1
    170      0   3   0.000  21.79859  26.87239   7.36618   0   0   1
    171      0   1   0.000  14.99043  10.35584  10.31572   0   0   1
    172      0   2   0.000  13.53307   9.97554   9.99831   0   0   1
    173      0   2   0.000  13.09799   8.55820  10.41454   0   0   1
    174      0   2   0.000  12.72213   8.32768  11.88826   0   0   1
    175      0   2   0.000  13.88627   8.15548  12.87768   0   0   1
    176      0   2   0.000  13.41249   8.40398  14.31625   0   0   1
    177      0   2   0.000  14.50673   8.39136  15.39402   0   0   1
    178      0   2   0.000  13.97554   8.98313  16.70941   0   0   1
    179      0   2   0.000  12.67895   8.30522  17.18494   0   0   1
    180      0   3   0.000  12.00741   9.00476  18.37959   0   0   1
    181      0   1   0.000   3.97372   6.47147  11.35648   0   0   1
    182      0   2   0.000   3.60255   6.35462  12.84535   0   0   1
    183      0   2   0.000   4.55651   7.11010  13.78965   0   0   1
    184      0   2   0.000   4.38435   6.73441  15.27201   0   0   1
    185      0   2   0.000   5.73590   6.40326  15.92292   0   0   1
    186      0   2   0.000   6.53955   5.31977  15.17428   0   0   1
    187      0   2   0.000   5.90677   3.91430  15.19176   0   0   1
    188      0   2   0.000   5.11190   3.51295  13.93593   0   0   1
    189      0   2   0.000   3.96285   2.55230  14.26847   0   0   1
    190      0   3   0.000   3.02316   3.12749  15.34466   0   0   1
    191      0   1   0.000   1.88744  20.22776  13.23495   0   0   1
    192      0   2   0.000   0.83784  20.00036  14.33542   0   0   1
    193      0   2   0.000   1.19446  20.66664  15.67432   0   0   1
    194      0   2   0.000   0.20994  20.35340  16.81313   0   0   1
    195      0   2   0.000   0.63041  20.98072  18.15082   0   0   1
    196      0   2   0.000   2.06170  20.58814  18.54542   0   0   1
    197      0   2   0.000   2.51424  21.17477  19.88836   0   0   1
    198      0   2   0.000   1.86971  20.50382  21.10944   0   0   1
    199      0   2   0.000   2.36658  21.14603  22.41112   0   0   1
    200      0   3   0.000   1.98577  20.37121  23.67442   0   0   1
    201      0   1   0.000  10.40824   1.71718  26.98171   0   1   1
    202      0   2   0.000   9.63922   0.80942  26.03266   0   1   1
    203      0   2   0.000  10.36639   0.95152  24.70157   0   1   1
    204      0   2   0.000   9.77164   0.18743  23.52033   0   1   1
    205      0   2   0.000  10.83776   0.19678  22.42313   0   1   1
    206      0   2   0.000  10.43766  28.77522  21.04117   0   0   1
    207      0   2   0.000  11.58663   0.03598  20.09333   0   1   1
    208      0   2   0.000  11.42017  28.84254  18.59822   0   0   1
    209      0   2   0.000  12.63633   0.28733  17.82985   0   1   1
    210      0   3   0.000  12.56898   0.16603  16.29923   0   1   1
    211      0   1   0.000  21.50675  13.22125  11.81851   0   0   1
    212      0   2   0.000  20.83105  13.14181  13.19896   0   0   1
    213      0   2   0.000  21.77504  13.38669  14.39028   0   0   1
    214      0   2   0.000  21.04924  13.35274  15.74686   0   0   1
    215      0   2   0.000  21.96547  13.50819  16.97539   0   0   1
    216      0   2   0.000  21.25491  13.32292  18.33318   0   0   1
    217      0   2   0.000  21.32556  11.92947  18.99399   0   0   1
    218      0   2   0.000  20.65643  10.77420  18.22447   0   0   1
    219      0   2   0.000  21.55337  10.09554  17.17113   0   0   1
    220      0   3   0.000  20.79071   9.20562  16.17492   0   0   1
    221      0   1   0.000  27.58031  13.62500   1.30639   0   0   2
    222      0   2   0.000  26.20863  13.94847   1.89964   0   0   2
    223      0   2   0.000  25.00264  13.32639   1.18415   0   0   2
    224      0   2   0.000  24.96046  13.47782  28.78066   0   0   1
    225      0   2   0.000  24.56358  12.17185  28.08691   0   0   1
    226      0   2   0.000  23.36436  11.44880  28.71431   0   0   1
    227      0   2   0.000  22.95848  10.16609  27.96648   0   0   1
    228      0   2   0.000  23.36447   8.81574  28.58307   0   0   1
    229      0   2   0.000  24.69712   8.18974  28.15979   0   0   1
    230      0   3   0.000  25.14197   7.01071  29.04164   0   0   1
    231      0   1   0.000  18.73826  14.79493   8.07677   0   0   2
    232      0   2   0.000  17.67059  14.27843   7.10706   0   0   2
    233      0   2   0.000  18.16989  13.04761   6.34923   0   0   2
    234      0   2   0.000  17.33847  12.73205   5.10717   0   0   2
    235      0   2   0.000  17.09718  13.99803   4.27940   0   0   2
    236      0   2   0.000  18.36476  14.67732   3.75138   0   0   2
    237      0   2   0.000  19.09137  13.84245   2.70011   0   0   2
    238      0   2   0.000  20.29788  14.55355   2.10127   0   0   2
    239      0   2   0.000  21.00100  13.68576   1.07718   0   0   2
    240      0   3   0.000  19.85883  13.09348   0.28032   0   0   2
    241      0   1   0.000  20.67519  17.80611  14.68545   0   0   1
    242      0   2   0.000  21.33150  17.84235  13.29651   0   0   1
    243      0   2   0.000  20.27982  17.78296  12.18175   0   0   1
    244      0   2   0.000  20.82842  17.95587  10.76077   0   0   1
    245      0   2   0.000  19.68001  17.95871   9.74656   0   0   1
    246      0   2   0.000  20.08164  18.28473   8.30483   0   0   1
    247      0   2   0.000  18.83586  18.48280   7.43142   0   0   1
    248      0   2   0.000  19.05032  19.10595   6.04583   0   0   1
    249      0   2   0.000  19.49295  20.58270   6.03225   0   0   1
    250      0   3   0.000  20.99355  20.86934   6.24617   0   0   1
    251      0   1   0.000   3.50455  12.50350  14.89993   0   0   1
    252      0   2   0.000   2.49079  12.20824  13.78280   0   0   1
    253      0   2   0.000   3.13381  11.78688  12.45156   0   0   1
    254      0   2   0.000   2.20508  10.98969  11.52490   0   0   1
    255      0   2   0.000   2.20383   9.47495  11.79533   0   0   1
    256      0   2   0.000   1.31814   8.92656  12.93498   0   0   1
    257      0   2   0.000   1.78687   9.09985  14.38122   0   0   1
    258      0   2   0.000   0.71178   8.87823  15.44843   0   0   1
    259      0   2   0.000   1.25978   9.20422  16.84540   0   0   1
    260      0   3   0.000   0.19786   9.11097  17.95048   0   0   1
    261      0   1   0.000   5.61737  14.76851   0.03647   0   0   2
    262      0   2   0.000   5.08699  15.14679   1.42126   0   0   2
    263      0   2   0.000   6.20584  15.10301   2.47270   0   0   2
    264      0   2   0.000   5.81126  15.25057   3.95227   0   0   2
    265      0   2   0.000   5.35862  13.97776   4.68078   0   0   2
    266      0   2   0.000   3.88119  13.62696   4.47921   0   0   2
    267      0   2   0.000   3.56037  12.30491   3.76676   0   0   2
    268      0   2   0.000   3.71836  12.35003   2.24371   0   0   2
    269      0   2   0.000   4.92885  11.62662   1.61427   0   0   2
    270      0   3   0.000   6.36338  11.82879   2.12322   0   0   2
    271      0   1   0.000   9.06633  15.50141  21.71190   0   0   1
    272      0   2   0.000   9.83652  15.26293  20.40472   0   0   1
    273      0   2   0.000   9.21035  15.93600  19.17143   0   0   1
    274      0   2   0.000  10.06160  15.71803  17.91093   0   0   1
    275      0   2   0.000   9.47363  16.26575  16.59791   0   0   1
    276      0   2   0.000  10.21835  15.71907  15.36514   0   0   1
    277      0   2   0.000   9.38101  14.77080  14.48623   0   0   1
    278      0   2   0.000   8.65859  13.65239  15.25820   0   0   1
    279      0   2   0.000   9.59235  12.66043  15.97316   0   0   1
    280      0   3   0.000   8.85602  11.73943  16.95950   0   0   1
    281      0   1   0.000   3.98393  28.89759   2.02815   0   0   2
    282      0   2   0.000   2.71068  28.20188   1.60685   0   0   2
    283      0   2   0.000   2.80041  27.98749   0.11816   0   0   2
    284      0   2   0.000   1.72093  26.99028  28.85796   0   0   1
    285      0   2   0.000   2.20581  26.09902  27.72353   0   0   1
    286      0   2   0.000   3.04273  24.87556  28.10762   0   0   1
    287      0   2   0.000   4.41866  25.06989  28.75242   0   0   1
    288      0   2   0.000   4.41172  25.20907   1.16150   0   0   2
    289      0   2   0.000   5.79298  25.61994   1.66786   0   0   2
    290      0   3   0.000   5.78045  25.92000   3.16553   0   0   2
    291      0   1   0.000  27.69066   5.12146  11.62164   0   0   1
    292      0   2   0.000  27.39736   4.19466  10.43226   0   0   1
    293      0   2   0.000  28.08263   4.63512   9.13029   0   0   1
    294      0   2   0.000  27.32700   4.12260   7.90109   0   0   1
    295      0   2   0.000  27.98133   4.38374   6.54507   0   0   1
    296      0   2   0.000  27.19982   3.63610   5.46318   0   0   1
    297      0   2   0.000  27.91893   3.69095   4.12265   0   0   1
    298      0   2   0.000  27.40463   2.80245   2.98962   0   0   1
    299      0   2   0.000  27.72399   1.30840   3.13571   0   0   1
    300      0   3   0.000  26.76207   0.50008   3.99382   0   0   1
    301      0   1   0.000  16.73969  11.66707   1.27036   0   0   2
    302      0   2   0.000  15.98872  11.08954   2.46793   0   0   2
    303      0   2   0.000  16.54426   9.74517   2.93251   0   0   2
    304      0   2   0.000  15.53171   8.90133   3.72001   0   0   2
    305      0   2   0.000  16.10760   7.75387   4.57168   0   0   2
    306      0   2   0.000  16.30834   6.35659   3.96292   0   0   2
    307      0   2   0.000  17.46975   6.26269   2.97834   0   0   2
    308      0   2   0.000  17.36765   5.12208   1.97420   0   0   2
    309      0   2   0.000  17.70832   5.80869   0.66403   0   0   2
    310      0   3   0.000  18.00896   7.26671   1.00162   0   0   2
    311      0   1   0.000  27.81880  26.69937   1.40809   0   0   1
    312      0   2   0.000  26.98548  26.36448   2.65086   0   0   1
    313      0   2   0.000  27.78294  26.29442   3.96436   0   0   1
    314      0   2   0.000  26.87839  26.11916   5.19128   0   0   1
    315      0   2   0.000  27.60754  25.80611   6.50606   0   0   1
    316      0   2   0.000  26.68118  26.00186   7.71704   0   0   1
    317      0   2   0.000  27.31897  25.67234   9.07592   0   0   1
    318      0   2   0.000  26.50280  26.21124  10.26375   0   0   1
    319      0   2   0.000  27.12364  25.92652  11.64257   0   0   1
    320      0   3   0.000  26.57018  26.80833  12.77670   0   0   1
    321      0   1   0.000  14.85740  21.22558   0.54492   0   0   2
    322      0   2   0.000  13.79550  20.17278   0.92387   0   0   2
    323      0   2   0.000  14.24312  18.71075   1.10785   0   0   2
    324      0   2   0.000  14.25830  17.91136  28.92347   0   0   1
    325      0   2   0.000  15.42890  18.35104  28.05333   0   0   1
    326      0   2   0.000  15.16894  18.13786  26.57436   0   0   1
    327      0   2   0.000  16.31507  18.69651  25.73594   0   0   1
    328      0   2   0.000  16.01871  18.45793  24.25675   0   0   1
    329      0   2   0.000  15.61852  16.99503  24.02790   0   0   1
    330      0   3   0.000  15.23824  16.67087  22.57644   0   0   1
    331      0   1   0.000   1.57906  13.05092  24.08497   0   0   1
    332      0   2   0.000   1.75172  13.91490  22.82994   0   0   1
    333      0   2   0.000   2.24870  13.05266  21.66591   0   0   1
    334      0   2   0.000   1.30276  11.87068  21.41157   0   0   1
    335      0   2   0.000   1.94397  10.71830  20.62503   0   0   1
    336      0   2   0.000   3.09959  10.03742  21.37266   0   0   1
    337      0   2   0.000   2.72763   9.59824  22.79650   0   0   1
    338      0   2   0.000   1.66797   8.49579  22.94809   0   0   1
    339      0   2   0.000   1.27413   8.22569  24.41406   0   0   1
    340      0   3   0.000   0.53104   9.38693  25.10138   0   0   1
    341      0   1   0.000  13.74409   6.73940   6.61905   0   0   1
    342      0   2   0.000  13.11379   6.33514   7.94654   0   0   1
    343      0   2   0.000  13.97376   5.36922   8.77260   0   0   1
    344      0   2   0.000  13.23713   4.92490  10.04747   0   0   1
    345      0   2   0.000  13.54361   3.50188  10.54669   0   0   1
    346      0   2   0.000  12.87801   2.38348   9.72166   0   0   1
    347      0   2   0.000  13.58860   2.00008   8.41062   0   0   1
    348      0   2   0.000  12.59530   1.88758   7.24915   0   0   1
    349      0   2   0.000  11.93721   3.23685   6.94162   0   0   1
    350      0   3   0.000  10.67551   3.14596   6.08927   0   0   1
    351      0   1   0.000   3.08090  23.63756   4.57420   0   0   2
    352      0   2   0.000   1.59451  23.48815   4.22798   0   0   2
    353      0   2   0.000   1.21866  24.42634   3.07867   0   0   2
    354      0   2   0.000   0.89324  23.73662   1.75119   0   0   2
    355      0   2   0.000   1.94900  22.70143   1.36974   0   0   2
    356      0   2   0.000   1.90603  22.04752  29.09592   0   0   1
    357      0   2   0.000   2.73341  20.77540   0.06937   0   0   2
    358      0   2   0.000   1.88605  19.90838   0.99307   0   0   2
    359      0   2   0.000   2.52522  19.20872   2.18658   0   0   2
    360      0   3   0.000   2.83226  20.13229   3.36916   0   0   2
    361      0   1   0.000   5.15231  20.28616  16.12790   0   0   1
    362      0   2   0.000   4.93980  18.77016  15.97911   0   0   1
    363      0   2   0.000   5.78309  17.87722  16.91160   0   0   1
    364      0   2   0.000   5.30936  17.75964  18.37603   0   0   1
    365      0   2   0.000   5.78529  18.85916  19.34415   0   0   1
    366      0   2   0.000   5.31303  18.66533  20.79664   0   0   1
    367      0   2   0.000   5.88597  19.71700  21.76533   0   0   1
    368      0   2   0.000   5.43863  19.64796  23.24076   0   0   1
    369      0   2   0.000   5.97598  18.49802  24.11214   0   0   1
    370      0   3   0.000   5.21950  17.16413  24.03592   0   0   1
    371      0   1   0.000  21.55703   9.69879   8.35208   0   0   1
    372      0   2   0.000  22.01656   8.69454   7.27846   0   0   1
    373      0   2   0.000  23.13957   9.18585   6.34863   0   0   1
    374      0   2   0.000  23.43198   8.27692   5.15316   0   0   1
    375      0   2   0.000  24.86529   7.80837   4.84804   0   0   1
    376      0   2   0.000  25.06208   7.16401   3.46817   0   0   1
    377      0   2   0.000  24.78194   5.66484   3.35561   0   0   1
    378      0   2   0.000  23.54539   5.21124   4.13405   0   0   1
    379      0   2   0.000  23.86109   4.70892   5.54166   0   0   1
    380      0   3   0.000  22.65022   4.83698   6.46145   0   0   1
    381      0   1   0.000  23.33200   9.88630  12.64713   0   0   1
    382      0   2   0.000  23.75039  10.31688  11.23069   0   0   1
    383      0   2   0.000  24.39674   9.16237  10.45773   0   0   1
    384      0   2   0.000  24.96096   9.48281   9.06468   0   0   1
    385      0   2   0.000  25.72423   8.33881   8.36161   0   0   1
    386      0   2   0.000  25.06623   6.98041   8.05991   0   0   1
    387      0   2   0.000  24.79120   6.01166   9.21445   0   0   1
    388      0   2   0.000  23.40190   6.09246   9.84850   0   0   1
    389      0   2   0.000  23.41518   5.52587  11.27164   0   0   1
    390      0   3   0.000  22.23119   6.03393  12.10406   0   0   1
    391      0   1   0.000  20.74079  17.78896  28.42763   0   0   1
    392      0   2   0.000  21.41834  17.17916   0.49763   0   0   2
    393      0   2   0.000  22.64169  16.42935   0.04642   0   0   2
    394      0   2   0.000  23.65000  16.62516   1.13694   0   0   2
    395      0   2   0.000  25.03689  16.69664   0.54645   0   0   2
    396      0   2   0.000  25.88150  17.27135   1.66032   0   0   2
    397      0   2   0.000  26.58223  18.49807   1.11833   0   0   2
    398      0   2   0.000  25.75935  19.43869   0.23571   0   0   2
    399      0   2   0.000  24.56545  20.10824   0.92909   0   0   2
    400      0   3   0.000  23.84404  21.13642   0.04507   0   0   2
    401      0   1   0.000  26.51340  17.52881   5.09646   0   0   1
    402      0   2   0.000  25.04810  17.47883   5.53824   0   0   1
    403      0   2   0.000  24.88477  17.40444   7.06429   0   0   1
    404      0   2   0.000  23.46085  17.05401   7.51807   0   0   1
    405      0   2   0.000  23.38702  16.42423   8.91749   0   0   1
    406      0   2   0.000  24.28410  15.19097   9.13136   0   0   1
    407      0   2   0.000  23.82727  13.86109   8.50898   0   0   1
    408      0   2   0.000  24.91029  13.24145   7.61347   0   0   1
    409      0   2   0.000  25.09090  14.12174   6.38025   0   0   1
    410      0   3   0.000  26.32807  13.98323   5.50343   0   0   1
    411      0   1   0.000   5.94156   9.39416   4.89301   0   0   2
    412      0   2   0.000   4.58349   9.13841   4.20952   0   0   2
    413      0   2   0.000   4.72459   8.74322   2.72828   0   0   2
    414      0   2   0.000   3.44779   8.42546   1.92634   0   0   2
    415      0   2   0.000   3.72926   7.90824   0.50091   0   0   2
    416      0   2   0.000   4.16185   6.43407   0.33990   0   0   2
    417      0   2   0.000   5.33095   5.93201   1.21069   0   0   2
    418      0   2   0.000   4.88047   5.23421   2.50998   0   0   2
    419      0   2   0.000   5.19883   5.87777   3.87441   0   0   2
    420      0   3   0.000   4.47000   5.38501   5.13752   0   0   2
    421      0   1   0.000   5.83602  13.92544  22.51962   0   0   1
    422      0   2   0.000   6.26048  13.15479  23.77866   0   0   1
    423      0   2   0.000   7.44555  13.69912  24.60141   0   0   1
    424      0   2   0.000   7.93676  12.75638  25.72363   0   0   1
    425      0   2   0.000   8.95990  11.65337  25.35927   0   0   1